LAMMPS DATA file for 4*4*4-Ga2O3

1280 atoms
2 atom types

0.0 49.50744079 xlo xhi
0.0 12.33503135 ylo yhi
0.0 22.88864419 zlo zhi
0.0 -5.63553564 0.0 xy xz yz

Masses

1 69.723
2 15.999

Atoms #atomic

1 2 -5.21771506 1.54187892 21.43288522
2 2 -5.21771506 4.62563676 21.43288522
3 2 -5.21771506 7.70939459 21.43288522
4 2 -5.21771506 10.79315243 21.43288522
5 1 -4.21240152 0.00000000 21.72409286
6 1 -4.21240152 3.08375784 21.72409286
7 1 -4.21240152 6.16751568 21.72409286
8 1 -4.21240152 9.25127351 21.72409286
9 2 -3.80883115 1.54187892 15.71072417
10 2 -3.80883115 4.62563676 15.71072417
11 2 -3.80883115 7.70939459 15.71072417
12 2 -3.80883115 10.79315243 15.71072417
13 2 -2.87647710 0.00000000 20.38419964
14 2 -2.87647710 3.08375784 20.38419964
15 2 -2.87647710 6.16751568 20.38419964
16 2 -2.87647710 9.25127351 20.38419964
17 1 -2.80351761 0.00000000 16.00193182
18 1 -2.80351761 3.08375784 16.00193182
19 1 -2.80351761 6.16751568 16.00193182
20 1 -2.80351761 9.25127351 16.00193182
21 1 -2.71282533 1.54187892 18.96649419
22 1 -2.71282533 4.62563676 18.96649419
23 1 -2.71282533 7.70939459 18.96649419
24 1 -2.71282533 10.79315243 18.96649419
25 2 -2.39994724 1.54187892 9.98856313
26 2 -2.39994724 4.62563676 9.98856313
27 2 -2.39994724 7.70939459 9.98856313
28 2 -2.39994724 10.79315243 9.98856313
29 2 -2.32601804 0.00000000 17.79864003
30 2 -2.32601804 3.08375784 17.79864003
31 2 -2.32601804 6.16751568 17.79864003
32 2 -2.32601804 9.25127351 17.79864003
33 2 -1.46759319 0.00000000 14.66203860
34 2 -1.46759319 3.08375784 14.66203860
35 2 -1.46759319 6.16751568 14.66203860
36 2 -1.46759319 9.25127351 14.66203860
37 1 -1.39463370 0.00000000 10.27977077
38 1 -1.39463370 3.08375784 10.27977077
39 1 -1.39463370 6.16751568 10.27977077
40 1 -1.39463370 9.25127351 10.27977077
41 2 -1.34773922 1.54187892 22.25648731
42 2 -1.34773922 4.62563676 22.25648731
43 2 -1.34773922 7.70939459 22.25648731
44 2 -1.34773922 10.79315243 22.25648731
45 1 -1.30394142 1.54187892 13.24433314
46 1 -1.30394142 4.62563676 13.24433314
47 1 -1.30394142 7.70939459 13.24433314
48 1 -1.30394142 10.79315243 13.24433314
49 2 -0.99106333 1.54187892 4.26640208
50 2 -0.99106333 4.62563676 4.26640208
51 2 -0.99106333 7.70939459 4.26640208
52 2 -0.99106333 10.79315243 4.26640208
53 1 -0.96093194 0.00000000 21.08863315
54 1 -0.96093194 3.08375784 21.08863315
55 1 -0.96093194 6.16751568 21.08863315
56 1 -0.96093194 9.25127351 21.08863315
57 2 -0.91713414 0.00000000 12.07647898
58 2 -0.91713414 3.08375784 12.07647898
59 2 -0.91713414 6.16751568 12.07647898
60 2 -0.91713414 9.25127351 12.07647898
61 2 -0.79728017 1.54187892 19.67092769
62 2 -0.79728017 4.62563676 19.67092769
63 2 -0.79728017 7.70939459 19.67092769
64 2 -0.79728017 10.79315243 19.67092769
65 2 -0.05870928 0.00000000 8.93987755
66 2 -0.05870928 3.08375784 8.93987755
67 2 -0.05870928 6.16751568 8.93987755
68 2 -0.05870928 9.25127351 8.93987755
69 1 0.01425021 0.00000000 4.55760972
70 1 0.01425021 3.08375784 4.55760972
71 1 0.01425021 6.16751568 4.55760972
72 1 0.01425021 9.25127351 4.55760972
73 2 0.06114469 1.54187892 16.53432626
74 2 0.06114469 4.62563676 16.53432626
75 2 0.06114469 7.70939459 16.53432626
76 2 0.06114469 10.79315243 16.53432626
77 1 0.10494249 1.54187892 7.52217209
78 1 0.10494249 4.62563676 7.52217209
79 1 0.10494249 7.70939459 7.52217209
80 1 0.10494249 10.79315243 7.52217209
81 1 0.44795197 0.00000000 15.36647210
82 1 0.44795197 3.08375784 15.36647210
83 1 0.44795197 6.16751568 15.36647210
84 1 0.44795197 9.25127351 15.36647210
85 2 0.49174977 0.00000000 6.35431793
86 2 0.49174977 3.08375784 6.35431793
87 2 0.49174977 6.16751568 6.35431793
88 2 0.49174977 9.25127351 6.35431793
89 1 0.53864426 1.54187892 18.33103447
90 1 0.53864426 4.62563676 18.33103447
91 1 0.53864426 7.70939459 18.33103447
92 1 0.53864426 10.79315243 18.33103447
93 2 0.61160374 1.54187892 13.94876664
94 2 0.61160374 4.62563676 13.94876664
95 2 0.61160374 7.70939459 13.94876664
96 2 0.61160374 10.79315243 13.94876664
97 2 0.97071504 0.00000000 21.43288522
98 2 0.97071504 3.08375784 21.43288522
99 2 0.97071504 6.16751568 21.43288522
100 2 0.97071504 9.25127351 21.43288522
101 2 1.35017463 0.00000000 3.21771650
102 2 1.35017463 3.08375784 3.21771650
103 2 1.35017463 6.16751568 3.21771650
104 2 1.35017463 9.25127351 3.21771650
105 2 1.47002860 1.54187892 10.81216521
106 2 1.47002860 4.62563676 10.81216521
107 2 1.47002860 7.70939459 10.81216521
108 2 1.47002860 10.79315243 10.81216521
109 1 1.51382640 1.54187892 1.80001105
110 1 1.51382640 4.62563676 1.80001105
111 1 1.51382640 7.70939459 1.80001105
112 1 1.51382640 10.79315243 1.80001105
113 2 1.54395780 0.00000000 18.62224211
114 2 1.54395780 3.08375784 18.62224211
115 2 1.54395780 6.16751568 18.62224211
116 2 1.54395780 9.25127351 18.62224211
117 1 1.85683588 0.00000000 9.64431105
118 1 1.85683588 3.08375784 9.64431105
119 1 1.85683588 6.16751568 9.64431105
120 1 1.85683588 9.25127351 9.64431105
121 2 1.90063368 0.00000000 0.63215689
122 2 1.90063368 3.08375784 0.63215689
123 2 1.90063368 6.16751568 0.63215689
124 2 1.90063368 9.25127351 0.63215689
125 1 1.94752817 1.54187892 12.60887342
126 1 1.94752817 4.62563676 12.60887342
127 1 1.94752817 7.70939459 12.60887342
128 1 1.94752817 10.79315243 12.60887342
129 1 1.97602858 1.54187892 21.72409286
130 1 1.97602858 4.62563676 21.72409286
131 1 1.97602858 7.70939459 21.72409286
132 1 1.97602858 10.79315243 21.72409286
133 2 2.02048765 1.54187892 8.22660560
134 2 2.02048765 4.62563676 8.22660560
135 2 2.02048765 7.70939459 8.22660560
136 2 2.02048765 10.79315243 8.22660560
137 2 2.37959895 0.00000000 15.71072417
138 2 2.37959895 3.08375784 15.71072417
139 2 2.37959895 6.16751568 15.71072417
140 2 2.37959895 9.25127351 15.71072417
141 2 2.87891251 1.54187892 5.09000416
142 2 2.87891251 4.62563676 5.09000416
143 2 2.87891251 7.70939459 5.09000416
144 2 2.87891251 10.79315243 5.09000416
145 2 2.95284171 0.00000000 12.90008107
146 2 2.95284171 3.08375784 12.90008107
147 2 2.95284171 6.16751568 12.90008107
148 2 2.95284171 9.25127351 12.90008107
149 1 3.26571979 0.00000000 3.92215000
150 1 3.26571979 3.08375784 3.92215000
151 1 3.26571979 6.16751568 3.92215000
152 1 3.26571979 9.25127351 3.92215000
153 2 3.31195300 1.54187892 20.38419964
154 2 3.31195300 4.62563676 20.38419964
155 2 3.31195300 7.70939459 20.38419964
156 2 3.31195300 10.79315243 20.38419964
157 1 3.35641207 1.54187892 6.88671238
158 1 3.35641207 4.62563676 6.88671238
159 1 3.35641207 7.70939459 6.88671238
160 1 3.35641207 10.79315243 6.88671238
161 1 3.38491249 1.54187892 16.00193182
162 1 3.38491249 4.62563676 16.00193182
163 1 3.38491249 7.70939459 16.00193182
164 1 3.38491249 10.79315243 16.00193182
165 2 3.42937156 1.54187892 2.50444455
166 2 3.42937156 4.62563676 2.50444455
167 2 3.42937156 7.70939459 2.50444455
168 2 3.42937156 10.79315243 2.50444455
169 1 3.47560477 0.00000000 18.96649419
170 1 3.47560477 3.08375784 18.96649419
171 1 3.47560477 6.16751568 18.96649419
172 1 3.47560477 9.25127351 18.96649419
173 2 3.78848285 0.00000000 9.98856313
174 2 3.78848285 3.08375784 9.98856313
175 2 3.78848285 6.16751568 9.98856313
176 2 3.78848285 9.25127351 9.98856313
177 2 3.86241205 1.54187892 17.79864003
178 2 3.86241205 4.62563676 17.79864003
179 2 3.86241205 7.70939459 17.79864003
180 2 3.86241205 10.79315243 17.79864003
181 2 4.36172562 0.00000000 7.17792002
182 2 4.36172562 3.08375784 7.17792002
183 2 4.36172562 6.16751568 7.17792002
184 2 4.36172562 9.25127351 7.17792002
185 2 4.72083691 1.54187892 14.66203860
186 2 4.72083691 4.62563676 14.66203860
187 2 4.72083691 7.70939459 14.66203860
188 2 4.72083691 10.79315243 14.66203860
189 1 4.76529598 1.54187892 1.16455133
190 1 4.76529598 4.62563676 1.16455133
191 1 4.76529598 7.70939459 1.16455133
192 1 4.76529598 10.79315243 1.16455133
193 1 4.79379640 1.54187892 10.27977077
194 1 4.79379640 4.62563676 10.27977077
195 1 4.79379640 7.70939459 10.27977077
196 1 4.79379640 10.79315243 10.27977077
197 2 4.84069088 0.00000000 22.25648731
198 2 4.84069088 3.08375784 22.25648731
199 2 4.84069088 6.16751568 22.25648731
200 2 4.84069088 9.25127351 22.25648731
201 1 4.88448868 0.00000000 13.24433314
202 1 4.88448868 3.08375784 13.24433314
203 1 4.88448868 6.16751568 13.24433314
204 1 4.88448868 9.25127351 13.24433314
205 2 5.19736676 0.00000000 4.26640208
206 2 5.19736676 3.08375784 4.26640208
207 2 5.19736676 6.16751568 4.26640208
208 2 5.19736676 9.25127351 4.26640208
209 1 5.22749816 1.54187892 21.08863315
210 1 5.22749816 4.62563676 21.08863315
211 1 5.22749816 7.70939459 21.08863315
212 1 5.22749816 10.79315243 21.08863315
213 2 5.27129596 1.54187892 12.07647898
214 2 5.27129596 4.62563676 12.07647898
215 2 5.27129596 7.70939459 12.07647898
216 2 5.27129596 10.79315243 12.07647898
217 2 5.39114993 0.00000000 19.67092769
218 2 5.39114993 3.08375784 19.67092769
219 2 5.39114993 6.16751568 19.67092769
220 2 5.39114993 9.25127351 19.67092769
221 2 5.77060952 0.00000000 1.45575897
222 2 5.77060952 3.08375784 1.45575897
223 2 5.77060952 6.16751568 1.45575897
224 2 5.77060952 9.25127351 1.45575897
225 2 6.12972082 1.54187892 8.93987755
226 2 6.12972082 4.62563676 8.93987755
227 2 6.12972082 7.70939459 8.93987755
228 2 6.12972082 10.79315243 8.93987755
229 1 6.20268030 1.54187892 4.55760972
230 1 6.20268030 4.62563676 4.55760972
231 1 6.20268030 7.70939459 4.55760972
232 1 6.20268030 10.79315243 4.55760972
233 2 6.24957479 0.00000000 16.53432626
234 2 6.24957479 3.08375784 16.53432626
235 2 6.24957479 6.16751568 16.53432626
236 2 6.24957479 9.25127351 16.53432626
237 1 6.29337259 0.00000000 7.52217209
238 1 6.29337259 3.08375784 7.52217209
239 1 6.29337259 6.16751568 7.52217209
240 1 6.29337259 9.25127351 7.52217209
241 1 6.63638207 1.54187892 15.36647210
242 1 6.63638207 4.62563676 15.36647210
243 1 6.63638207 7.70939459 15.36647210
244 1 6.63638207 10.79315243 15.36647210
245 2 6.68017987 1.54187892 6.35431793
246 2 6.68017987 4.62563676 6.35431793
247 2 6.68017987 7.70939459 6.35431793
248 2 6.68017987 10.79315243 6.35431793
249 1 6.72707436 0.00000000 18.33103447
250 1 6.72707436 3.08375784 18.33103447
251 1 6.72707436 6.16751568 18.33103447
252 1 6.72707436 9.25127351 18.33103447
253 2 6.80003384 0.00000000 13.94876664
254 2 6.80003384 3.08375784 13.94876664
255 2 6.80003384 6.16751568 13.94876664
256 2 6.80003384 9.25127351 13.94876664
257 2 7.15914514 1.54187892 21.43288522
258 2 7.15914514 4.62563676 21.43288522
259 2 7.15914514 7.70939459 21.43288522
260 2 7.15914514 10.79315243 21.43288522
261 2 7.53860473 1.54187892 3.21771650
262 2 7.53860473 4.62563676 3.21771650
263 2 7.53860473 7.70939459 3.21771650
264 2 7.53860473 10.79315243 3.21771650
265 2 7.65845870 0.00000000 10.81216521
266 2 7.65845870 3.08375784 10.81216521
267 2 7.65845870 6.16751568 10.81216521
268 2 7.65845870 9.25127351 10.81216521
269 1 7.70225650 0.00000000 1.80001105
270 1 7.70225650 3.08375784 1.80001105
271 1 7.70225650 6.16751568 1.80001105
272 1 7.70225650 9.25127351 1.80001105
273 2 7.73238790 1.54187892 18.62224211
274 2 7.73238790 4.62563676 18.62224211
275 2 7.73238790 7.70939459 18.62224211
276 2 7.73238790 10.79315243 18.62224211
277 1 8.04526598 1.54187892 9.64431105
278 1 8.04526598 4.62563676 9.64431105
279 1 8.04526598 7.70939459 9.64431105
280 1 8.04526598 10.79315243 9.64431105
281 2 8.08906378 1.54187892 0.63215689
282 2 8.08906378 4.62563676 0.63215689
283 2 8.08906378 7.70939459 0.63215689
284 2 8.08906378 10.79315243 0.63215689
285 1 8.13595826 0.00000000 12.60887342
286 1 8.13595826 3.08375784 12.60887342
287 1 8.13595826 6.16751568 12.60887342
288 1 8.13595826 9.25127351 12.60887342
289 1 8.16445868 0.00000000 21.72409286
290 1 8.16445868 3.08375784 21.72409286
291 1 8.16445868 6.16751568 21.72409286
292 1 8.16445868 9.25127351 21.72409286
293 2 8.20891775 0.00000000 8.22660560
294 2 8.20891775 3.08375784 8.22660560
295 2 8.20891775 6.16751568 8.22660560
296 2 8.20891775 9.25127351 8.22660560
297 2 8.56802904 1.54187892 15.71072417
298 2 8.56802904 4.62563676 15.71072417
299 2 8.56802904 7.70939459 15.71072417
300 2 8.56802904 10.79315243 15.71072417
301 2 9.06734261 0.00000000 5.09000416
302 2 9.06734261 3.08375784 5.09000416
303 2 9.06734261 6.16751568 5.09000416
304 2 9.06734261 9.25127351 5.09000416
305 2 9.14127181 1.54187892 12.90008107
306 2 9.14127181 4.62563676 12.90008107
307 2 9.14127181 7.70939459 12.90008107
308 2 9.14127181 10.79315243 12.90008107
309 1 9.45414989 1.54187892 3.92215000
310 1 9.45414989 4.62563676 3.92215000
311 1 9.45414989 7.70939459 3.92215000
312 1 9.45414989 10.79315243 3.92215000
313 2 9.50038310 0.00000000 20.38419964
314 2 9.50038310 3.08375784 20.38419964
315 2 9.50038310 6.16751568 20.38419964
316 2 9.50038310 9.25127351 20.38419964
317 1 9.54484217 0.00000000 6.88671238
318 1 9.54484217 3.08375784 6.88671238
319 1 9.54484217 6.16751568 6.88671238
320 1 9.54484217 9.25127351 6.88671238
321 1 9.57334259 0.00000000 16.00193182
322 1 9.57334259 3.08375784 16.00193182
323 1 9.57334259 6.16751568 16.00193182
324 1 9.57334259 9.25127351 16.00193182
325 2 9.61780166 0.00000000 2.50444455
326 2 9.61780166 3.08375784 2.50444455
327 2 9.61780166 6.16751568 2.50444455
328 2 9.61780166 9.25127351 2.50444455
329 1 9.66403487 1.54187892 18.96649419
330 1 9.66403487 4.62563676 18.96649419
331 1 9.66403487 7.70939459 18.96649419
332 1 9.66403487 10.79315243 18.96649419
333 2 9.97691295 1.54187892 9.98856313
334 2 9.97691295 4.62563676 9.98856313
335 2 9.97691295 7.70939459 9.98856313
336 2 9.97691295 10.79315243 9.98856313
337 2 10.05084215 0.00000000 17.79864003
338 2 10.05084215 3.08375784 17.79864003
339 2 10.05084215 6.16751568 17.79864003
340 2 10.05084215 9.25127351 17.79864003
341 2 10.55015571 1.54187892 7.17792002
342 2 10.55015571 4.62563676 7.17792002
343 2 10.55015571 7.70939459 7.17792002
344 2 10.55015571 10.79315243 7.17792002
345 2 10.90926701 0.00000000 14.66203860
346 2 10.90926701 3.08375784 14.66203860
347 2 10.90926701 6.16751568 14.66203860
348 2 10.90926701 9.25127351 14.66203860
349 1 10.95372608 0.00000000 1.16455133
350 1 10.95372608 3.08375784 1.16455133
351 1 10.95372608 6.16751568 1.16455133
352 1 10.95372608 9.25127351 1.16455133
353 1 10.98222649 0.00000000 10.27977077
354 1 10.98222649 3.08375784 10.27977077
355 1 10.98222649 6.16751568 10.27977077
356 1 10.98222649 9.25127351 10.27977077
357 2 11.02912098 1.54187892 22.25648731
358 2 11.02912098 4.62563676 22.25648731
359 2 11.02912098 7.70939459 22.25648731
360 2 11.02912098 10.79315243 22.25648731
361 1 11.07291878 1.54187892 13.24433314
362 1 11.07291878 4.62563676 13.24433314
363 1 11.07291878 7.70939459 13.24433314
364 1 11.07291878 10.79315243 13.24433314
365 2 11.38579686 1.54187892 4.26640208
366 2 11.38579686 4.62563676 4.26640208
367 2 11.38579686 7.70939459 4.26640208
368 2 11.38579686 10.79315243 4.26640208
369 1 11.41592826 0.00000000 21.08863315
370 1 11.41592826 3.08375784 21.08863315
371 1 11.41592826 6.16751568 21.08863315
372 1 11.41592826 9.25127351 21.08863315
373 2 11.45972606 0.00000000 12.07647898
374 2 11.45972606 3.08375784 12.07647898
375 2 11.45972606 6.16751568 12.07647898
376 2 11.45972606 9.25127351 12.07647898
377 2 11.57958003 1.54187892 19.67092769
378 2 11.57958003 4.62563676 19.67092769
379 2 11.57958003 7.70939459 19.67092769
380 2 11.57958003 10.79315243 19.67092769
381 2 11.95903962 1.54187892 1.45575897
382 2 11.95903962 4.62563676 1.45575897
383 2 11.95903962 7.70939459 1.45575897
384 2 11.95903962 10.79315243 1.45575897
385 2 12.31815092 0.00000000 8.93987755
386 2 12.31815092 3.08375784 8.93987755
387 2 12.31815092 6.16751568 8.93987755
388 2 12.31815092 9.25127351 8.93987755
389 1 12.39111040 0.00000000 4.55760972
390 1 12.39111040 3.08375784 4.55760972
391 1 12.39111040 6.16751568 4.55760972
392 1 12.39111040 9.25127351 4.55760972
393 2 12.43800489 1.54187892 16.53432626
394 2 12.43800489 4.62563676 16.53432626
395 2 12.43800489 7.70939459 16.53432626
396 2 12.43800489 10.79315243 16.53432626
397 1 12.48180269 1.54187892 7.52217209
398 1 12.48180269 4.62563676 7.52217209
399 1 12.48180269 7.70939459 7.52217209
400 1 12.48180269 10.79315243 7.52217209
401 1 12.82481217 0.00000000 15.36647210
402 1 12.82481217 3.08375784 15.36647210
403 1 12.82481217 6.16751568 15.36647210
404 1 12.82481217 9.25127351 15.36647210
405 2 12.86860997 0.00000000 6.35431793
406 2 12.86860997 3.08375784 6.35431793
407 2 12.86860997 6.16751568 6.35431793
408 2 12.86860997 9.25127351 6.35431793
409 1 12.91550445 1.54187892 18.33103447
410 1 12.91550445 4.62563676 18.33103447
411 1 12.91550445 7.70939459 18.33103447
412 1 12.91550445 10.79315243 18.33103447
413 2 12.98846394 1.54187892 13.94876664
414 2 12.98846394 4.62563676 13.94876664
415 2 12.98846394 7.70939459 13.94876664
416 2 12.98846394 10.79315243 13.94876664
417 2 13.34757523 0.00000000 21.43288522
418 2 13.34757523 3.08375784 21.43288522
419 2 13.34757523 6.16751568 21.43288522
420 2 13.34757523 9.25127351 21.43288522
421 2 13.72703483 0.00000000 3.21771650
422 2 13.72703483 3.08375784 3.21771650
423 2 13.72703483 6.16751568 3.21771650
424 2 13.72703483 9.25127351 3.21771650
425 2 13.84688880 1.54187892 10.81216521
426 2 13.84688880 4.62563676 10.81216521
427 2 13.84688880 7.70939459 10.81216521
428 2 13.84688880 10.79315243 10.81216521
429 1 13.89068660 1.54187892 1.80001105
430 1 13.89068660 4.62563676 1.80001105
431 1 13.89068660 7.70939459 1.80001105
432 1 13.89068660 10.79315243 1.80001105
433 2 13.92081799 0.00000000 18.62224211
434 2 13.92081799 3.08375784 18.62224211
435 2 13.92081799 6.16751568 18.62224211
436 2 13.92081799 9.25127351 18.62224211
437 1 14.23369608 0.00000000 9.64431105
438 1 14.23369608 3.08375784 9.64431105
439 1 14.23369608 6.16751568 9.64431105
440 1 14.23369608 9.25127351 9.64431105
441 2 14.27749388 0.00000000 0.63215689
442 2 14.27749388 3.08375784 0.63215689
443 2 14.27749388 6.16751568 0.63215689
444 2 14.27749388 9.25127351 0.63215689
445 1 14.32438836 1.54187892 12.60887342
446 1 14.32438836 4.62563676 12.60887342
447 1 14.32438836 7.70939459 12.60887342
448 1 14.32438836 10.79315243 12.60887342
449 1 14.35288877 1.54187892 21.72409286
450 1 14.35288877 4.62563676 21.72409286
451 1 14.35288877 7.70939459 21.72409286
452 1 14.35288877 10.79315243 21.72409286
453 2 14.39734785 1.54187892 8.22660560
454 2 14.39734785 4.62563676 8.22660560
455 2 14.39734785 7.70939459 8.22660560
456 2 14.39734785 10.79315243 8.22660560
457 2 14.75645914 0.00000000 15.71072417
458 2 14.75645914 3.08375784 15.71072417
459 2 14.75645914 6.16751568 15.71072417
460 2 14.75645914 9.25127351 15.71072417
461 2 15.25577270 1.54187892 5.09000416
462 2 15.25577270 4.62563676 5.09000416
463 2 15.25577270 7.70939459 5.09000416
464 2 15.25577270 10.79315243 5.09000416
465 2 15.32970190 0.00000000 12.90008107
466 2 15.32970190 3.08375784 12.90008107
467 2 15.32970190 6.16751568 12.90008107
468 2 15.32970190 9.25127351 12.90008107
469 1 15.64257999 0.00000000 3.92215000
470 1 15.64257999 3.08375784 3.92215000
471 1 15.64257999 6.16751568 3.92215000
472 1 15.64257999 9.25127351 3.92215000
473 2 15.68881320 1.54187892 20.38419964
474 2 15.68881320 4.62563676 20.38419964
475 2 15.68881320 7.70939459 20.38419964
476 2 15.68881320 10.79315243 20.38419964
477 1 15.73327227 1.54187892 6.88671238
478 1 15.73327227 4.62563676 6.88671238
479 1 15.73327227 7.70939459 6.88671238
480 1 15.73327227 10.79315243 6.88671238
481 1 15.76177268 1.54187892 16.00193182
482 1 15.76177268 4.62563676 16.00193182
483 1 15.76177268 7.70939459 16.00193182
484 1 15.76177268 10.79315243 16.00193182
485 2 15.80623176 1.54187892 2.50444455
486 2 15.80623176 4.62563676 2.50444455
487 2 15.80623176 7.70939459 2.50444455
488 2 15.80623176 10.79315243 2.50444455
489 1 15.85246497 0.00000000 18.96649419
490 1 15.85246497 3.08375784 18.96649419
491 1 15.85246497 6.16751568 18.96649419
492 1 15.85246497 9.25127351 18.96649419
493 2 16.16534305 0.00000000 9.98856313
494 2 16.16534305 3.08375784 9.98856313
495 2 16.16534305 6.16751568 9.98856313
496 2 16.16534305 9.25127351 9.98856313
497 2 16.23927225 1.54187892 17.79864003
498 2 16.23927225 4.62563676 17.79864003
499 2 16.23927225 7.70939459 17.79864003
500 2 16.23927225 10.79315243 17.79864003
501 2 16.73858581 0.00000000 7.17792002
502 2 16.73858581 3.08375784 7.17792002
503 2 16.73858581 6.16751568 7.17792002
504 2 16.73858581 9.25127351 7.17792002
505 2 17.09769711 1.54187892 14.66203860
506 2 17.09769711 4.62563676 14.66203860
507 2 17.09769711 7.70939459 14.66203860
508 2 17.09769711 10.79315243 14.66203860
509 1 17.14215618 1.54187892 1.16455133
510 1 17.14215618 4.62563676 1.16455133
511 1 17.14215618 7.70939459 1.16455133
512 1 17.14215618 10.79315243 1.16455133
513 1 17.17065659 1.54187892 10.27977077
514 1 17.17065659 4.62563676 10.27977077
515 1 17.17065659 7.70939459 10.27977077
516 1 17.17065659 10.79315243 10.27977077
517 2 17.21755108 0.00000000 22.25648731
518 2 17.21755108 3.08375784 22.25648731
519 2 17.21755108 6.16751568 22.25648731
520 2 17.21755108 9.25127351 22.25648731
521 1 17.26134888 0.00000000 13.24433314
522 1 17.26134888 3.08375784 13.24433314
523 1 17.26134888 6.16751568 13.24433314
524 1 17.26134888 9.25127351 13.24433314
525 2 17.57422696 0.00000000 4.26640208
526 2 17.57422696 3.08375784 4.26640208
527 2 17.57422696 6.16751568 4.26640208
528 2 17.57422696 9.25127351 4.26640208
529 1 17.60435836 1.54187892 21.08863315
530 1 17.60435836 4.62563676 21.08863315
531 1 17.60435836 7.70939459 21.08863315
532 1 17.60435836 10.79315243 21.08863315
533 2 17.64815616 1.54187892 12.07647898
534 2 17.64815616 4.62563676 12.07647898
535 2 17.64815616 7.70939459 12.07647898
536 2 17.64815616 10.79315243 12.07647898
537 2 17.76801013 0.00000000 19.67092769
538 2 17.76801013 3.08375784 19.67092769
539 2 17.76801013 6.16751568 19.67092769
540 2 17.76801013 9.25127351 19.67092769
541 2 18.14746972 0.00000000 1.45575897
542 2 18.14746972 3.08375784 1.45575897
543 2 18.14746972 6.16751568 1.45575897
544 2 18.14746972 9.25127351 1.45575897
545 2 18.50658102 1.54187892 8.93987755
546 2 18.50658102 4.62563676 8.93987755
547 2 18.50658102 7.70939459 8.93987755
548 2 18.50658102 10.79315243 8.93987755
549 1 18.57954050 1.54187892 4.55760972
550 1 18.57954050 4.62563676 4.55760972
551 1 18.57954050 7.70939459 4.55760972
552 1 18.57954050 10.79315243 4.55760972
553 2 18.62643499 0.00000000 16.53432626
554 2 18.62643499 3.08375784 16.53432626
555 2 18.62643499 6.16751568 16.53432626
556 2 18.62643499 9.25127351 16.53432626
557 1 18.67023279 0.00000000 7.52217209
558 1 18.67023279 3.08375784 7.52217209
559 1 18.67023279 6.16751568 7.52217209
560 1 18.67023279 9.25127351 7.52217209
561 1 19.01324227 1.54187892 15.36647210
562 1 19.01324227 4.62563676 15.36647210
563 1 19.01324227 7.70939459 15.36647210
564 1 19.01324227 10.79315243 15.36647210
565 2 19.05704007 1.54187892 6.35431793
566 2 19.05704007 4.62563676 6.35431793
567 2 19.05704007 7.70939459 6.35431793
568 2 19.05704007 10.79315243 6.35431793
569 1 19.10393455 0.00000000 18.33103447
570 1 19.10393455 3.08375784 18.33103447
571 1 19.10393455 6.16751568 18.33103447
572 1 19.10393455 9.25127351 18.33103447
573 2 19.17689404 0.00000000 13.94876664
574 2 19.17689404 3.08375784 13.94876664
575 2 19.17689404 6.16751568 13.94876664
576 2 19.17689404 9.25127351 13.94876664
577 2 19.53600533 1.54187892 21.43288522
578 2 19.53600533 4.62563676 21.43288522
579 2 19.53600533 7.70939459 21.43288522
580 2 19.53600533 10.79315243 21.43288522
581 2 19.91546492 1.54187892 3.21771650
582 2 19.91546492 4.62563676 3.21771650
583 2 19.91546492 7.70939459 3.21771650
584 2 19.91546492 10.79315243 3.21771650
585 2 20.03531889 0.00000000 10.81216521
586 2 20.03531889 3.08375784 10.81216521
587 2 20.03531889 6.16751568 10.81216521
588 2 20.03531889 9.25127351 10.81216521
589 1 20.07911670 0.00000000 1.80001105
590 1 20.07911670 3.08375784 1.80001105
591 1 20.07911670 6.16751568 1.80001105
592 1 20.07911670 9.25127351 1.80001105
593 2 20.10924809 1.54187892 18.62224211
594 2 20.10924809 4.62563676 18.62224211
595 2 20.10924809 7.70939459 18.62224211
596 2 20.10924809 10.79315243 18.62224211
597 1 20.42212618 1.54187892 9.64431105
598 1 20.42212618 4.62563676 9.64431105
599 1 20.42212618 7.70939459 9.64431105
600 1 20.42212618 10.79315243 9.64431105
601 2 20.46592398 1.54187892 0.63215689
602 2 20.46592398 4.62563676 0.63215689
603 2 20.46592398 7.70939459 0.63215689
604 2 20.46592398 10.79315243 0.63215689
605 1 20.51281846 0.00000000 12.60887342
606 1 20.51281846 3.08375784 12.60887342
607 1 20.51281846 6.16751568 12.60887342
608 1 20.51281846 9.25127351 12.60887342
609 1 20.54131887 0.00000000 21.72409286
610 1 20.54131887 3.08375784 21.72409286
611 1 20.54131887 6.16751568 21.72409286
612 1 20.54131887 9.25127351 21.72409286
613 2 20.58577795 0.00000000 8.22660560
614 2 20.58577795 3.08375784 8.22660560
615 2 20.58577795 6.16751568 8.22660560
616 2 20.58577795 9.25127351 8.22660560
617 2 20.94488924 1.54187892 15.71072417
618 2 20.94488924 4.62563676 15.71072417
619 2 20.94488924 7.70939459 15.71072417
620 2 20.94488924 10.79315243 15.71072417
621 2 21.44420280 0.00000000 5.09000416
622 2 21.44420280 3.08375784 5.09000416
623 2 21.44420280 6.16751568 5.09000416
624 2 21.44420280 9.25127351 5.09000416
625 2 21.51813200 1.54187892 12.90008107
626 2 21.51813200 4.62563676 12.90008107
627 2 21.51813200 7.70939459 12.90008107
628 2 21.51813200 10.79315243 12.90008107
629 1 21.83101009 1.54187892 3.92215000
630 1 21.83101009 4.62563676 3.92215000
631 1 21.83101009 7.70939459 3.92215000
632 1 21.83101009 10.79315243 3.92215000
633 2 21.87724330 0.00000000 20.38419964
634 2 21.87724330 3.08375784 20.38419964
635 2 21.87724330 6.16751568 20.38419964
636 2 21.87724330 9.25127351 20.38419964
637 1 21.92170237 0.00000000 6.88671238
638 1 21.92170237 3.08375784 6.88671238
639 1 21.92170237 6.16751568 6.88671238
640 1 21.92170237 9.25127351 6.88671238
641 1 21.95020278 0.00000000 16.00193182
642 1 21.95020278 3.08375784 16.00193182
643 1 21.95020278 6.16751568 16.00193182
644 1 21.95020278 9.25127351 16.00193182
645 2 21.99466186 0.00000000 2.50444455
646 2 21.99466186 3.08375784 2.50444455
647 2 21.99466186 6.16751568 2.50444455
648 2 21.99466186 9.25127351 2.50444455
649 1 22.04089507 1.54187892 18.96649419
650 1 22.04089507 4.62563676 18.96649419
651 1 22.04089507 7.70939459 18.96649419
652 1 22.04089507 10.79315243 18.96649419
653 2 22.35377315 1.54187892 9.98856313
654 2 22.35377315 4.62563676 9.98856313
655 2 22.35377315 7.70939459 9.98856313
656 2 22.35377315 10.79315243 9.98856313
657 2 22.42770235 0.00000000 17.79864003
658 2 22.42770235 3.08375784 17.79864003
659 2 22.42770235 6.16751568 17.79864003
660 2 22.42770235 9.25127351 17.79864003
661 2 22.92701591 1.54187892 7.17792002
662 2 22.92701591 4.62563676 7.17792002
663 2 22.92701591 7.70939459 7.17792002
664 2 22.92701591 10.79315243 7.17792002
665 2 23.28612721 0.00000000 14.66203860
666 2 23.28612721 3.08375784 14.66203860
667 2 23.28612721 6.16751568 14.66203860
668 2 23.28612721 9.25127351 14.66203860
669 1 23.33058628 0.00000000 1.16455133
670 1 23.33058628 3.08375784 1.16455133
671 1 23.33058628 6.16751568 1.16455133
672 1 23.33058628 9.25127351 1.16455133
673 1 23.35908669 0.00000000 10.27977077
674 1 23.35908669 3.08375784 10.27977077
675 1 23.35908669 6.16751568 10.27977077
676 1 23.35908669 9.25127351 10.27977077
677 2 23.40598117 1.54187892 22.25648731
678 2 23.40598117 4.62563676 22.25648731
679 2 23.40598117 7.70939459 22.25648731
680 2 23.40598117 10.79315243 22.25648731
681 1 23.44977898 1.54187892 13.24433314
682 1 23.44977898 4.62563676 13.24433314
683 1 23.44977898 7.70939459 13.24433314
684 1 23.44977898 10.79315243 13.24433314
685 2 23.76265706 1.54187892 4.26640208
686 2 23.76265706 4.62563676 4.26640208
687 2 23.76265706 7.70939459 4.26640208
688 2 23.76265706 10.79315243 4.26640208
689 1 23.79278846 0.00000000 21.08863315
690 1 23.79278846 3.08375784 21.08863315
691 1 23.79278846 6.16751568 21.08863315
692 1 23.79278846 9.25127351 21.08863315
693 2 23.83658626 0.00000000 12.07647898
694 2 23.83658626 3.08375784 12.07647898
695 2 23.83658626 6.16751568 12.07647898
696 2 23.83658626 9.25127351 12.07647898
697 2 23.95644023 1.54187892 19.67092769
698 2 23.95644023 4.62563676 19.67092769
699 2 23.95644023 7.70939459 19.67092769
700 2 23.95644023 10.79315243 19.67092769
701 2 24.33589982 1.54187892 1.45575897
702 2 24.33589982 4.62563676 1.45575897
703 2 24.33589982 7.70939459 1.45575897
704 2 24.33589982 10.79315243 1.45575897
705 2 24.69501111 0.00000000 8.93987755
706 2 24.69501111 3.08375784 8.93987755
707 2 24.69501111 6.16751568 8.93987755
708 2 24.69501111 9.25127351 8.93987755
709 1 24.76797060 0.00000000 4.55760972
710 1 24.76797060 3.08375784 4.55760972
711 1 24.76797060 6.16751568 4.55760972
712 1 24.76797060 9.25127351 4.55760972
713 2 24.81486508 1.54187892 16.53432626
714 2 24.81486508 4.62563676 16.53432626
715 2 24.81486508 7.70939459 16.53432626
716 2 24.81486508 10.79315243 16.53432626
717 1 24.85866289 1.54187892 7.52217209
718 1 24.85866289 4.62563676 7.52217209
719 1 24.85866289 7.70939459 7.52217209
720 1 24.85866289 10.79315243 7.52217209
721 1 25.20167237 0.00000000 15.36647210
722 1 25.20167237 3.08375784 15.36647210
723 1 25.20167237 6.16751568 15.36647210
724 1 25.20167237 9.25127351 15.36647210
725 2 25.24547017 0.00000000 6.35431793
726 2 25.24547017 3.08375784 6.35431793
727 2 25.24547017 6.16751568 6.35431793
728 2 25.24547017 9.25127351 6.35431793
729 1 25.29236465 1.54187892 18.33103447
730 1 25.29236465 4.62563676 18.33103447
731 1 25.29236465 7.70939459 18.33103447
732 1 25.29236465 10.79315243 18.33103447
733 2 25.36532414 1.54187892 13.94876664
734 2 25.36532414 4.62563676 13.94876664
735 2 25.36532414 7.70939459 13.94876664
736 2 25.36532414 10.79315243 13.94876664
737 2 25.72443543 0.00000000 21.43288522
738 2 25.72443543 3.08375784 21.43288522
739 2 25.72443543 6.16751568 21.43288522
740 2 25.72443543 9.25127351 21.43288522
741 2 26.10389502 0.00000000 3.21771650